
Host: LAPTOP-N0138OOM

Timers On : Wed Jun 23 10:44:35 2021
Timers Off: Wed Jun 23 10:44:44 2021

Wall Time:        9.28 seconds

                                                       Time (seconds)
Module                                       User      System        Wall        Calls

--------------------------------------------------------------------------------------

**************************************************************************************

Host: LAPTOP-N0138OOM

Timers On : Wed Jun 23 10:44:46 2021
Timers Off: Wed Jun 23 10:44:49 2021

Wall Time:        2.56 seconds

                                                       Time (seconds)
Module                                       User      System        Wall        Calls

--------------------------------------------------------------------------------------

**************************************************************************************

Host: LAPTOP-N0138OOM

Timers On : Wed Jun 23 10:45:05 2021
Timers Off: Wed Jun 23 10:45:07 2021

Wall Time:        2.26 seconds

                                                       Time (seconds)
Module                                       User      System        Wall        Calls

--------------------------------------------------------------------------------------

**************************************************************************************

Host: LAPTOP-N0138OOM

Timers On : Wed Jun 23 11:35:01 2021
Timers Off: Wed Jun 23 11:35:07 2021

Wall Time:        6.12 seconds

                                                       Time (seconds)
Module                                       User      System        Wall        Calls

--------------------------------------------------------------------------------------

**************************************************************************************

Host: LAPTOP-N0138OOM

Timers On : Fri Jun 25 11:40:05 2021
Timers Off: Fri Jun 25 11:40:14 2021

Wall Time:        9.24 seconds

                                                       Time (seconds)
Module                                       User      System        Wall        Calls

--------------------------------------------------------------------------------------

**************************************************************************************

Host: LAPTOP-N0138OOM

Timers On : Tue Jun 29 11:06:15 2021
Timers Off: Tue Jun 29 11:06:23 2021

Wall Time:        8.05 seconds

                                                       Time (seconds)
Module                                       User      System        Wall        Calls

--------------------------------------------------------------------------------------

**************************************************************************************

Host: LAPTOP-N0138OOM

Timers On : Mon Jul  5 15:25:54 2021
Timers Off: Mon Jul  5 15:26:05 2021

Wall Time:       10.52 seconds

                                                       Time (seconds)
Module                                       User      System        Wall        Calls

--------------------------------------------------------------------------------------

**************************************************************************************

Host: LAPTOP-N0138OOM

Timers On : Mon Jul  5 15:29:39 2021
Timers Off: Mon Jul  5 15:29:42 2021

Wall Time:        2.62 seconds

                                                       Time (seconds)
Module                                       User      System        Wall        Calls

--------------------------------------------------------------------------------------

**************************************************************************************

Host: LAPTOP-N0138OOM

Timers On : Mon Jul  5 15:44:46 2021
Timers Off: Mon Jul  5 15:44:51 2021

Wall Time:        5.07 seconds

                                                       Time (seconds)
Module                                       User      System        Wall        Calls

--------------------------------------------------------------------------------------

**************************************************************************************

Host: LAPTOP-N0138OOM

Timers On : Mon Jul  5 16:19:00 2021
Timers Off: Mon Jul  5 16:19:03 2021

Wall Time:        3.64 seconds

                                                       Time (seconds)
Module                                       User      System        Wall        Calls

--------------------------------------------------------------------------------------

**************************************************************************************
